
  ___ ___ ___ _ _ _  
 |   |   |_  | | | | 
 | | | | | . | | | | 
 |__ |  _|___|_____|  25.1.0
 |___|_|             

User:   hexu@fsc-phys-ptm48.user.uliege.priv
Date:   Tue Jul 22 09:21:00 2025
Arch:   arm64
Pid:    23578
CWD:    /Users/hexu/projects/HamiltonIO/HamiltonIO/gpaw
Python: 3.13.2
gpaw:   /Users/hexu/.venv/mydev/lib/python3.13/site-packages/gpaw
_gpaw:  /Users/hexu/.venv/mydev/lib/python3.13/site-packages/
        _gpaw.cpython-313-darwin.so
ase:    /Users/hexu/.venv/mydev/lib/python3.13/site-packages/ase (version 3.25.0)
numpy:  /Users/hexu/.venv/mydev/lib/python3.13/site-packages/numpy (version 1.26.4)
scipy:  /Users/hexu/.venv/mydev/lib/python3.13/site-packages/scipy (version 1.15.2)
libxc:  7.0.0
units:  Angstrom and eV
cores: 1
OpenMP: False
OMP_NUM_THREADS: 4

Input parameters:
  mode: {interpolation: 3,
         name: lcao}
  xc: PBE

System changes: positions, numbers, cell, pbc, initial_charges, initial_magmoms 

Initialize ...

species:
  O:
    name: Oxygen
    id: 32ecd46bf208036f09c70b0ec9a88b78
    Z: 8.0
    valence: 6
    core: 2
    charge: 0.0
    file: /Users/hexu/.local/pp/gpaw/gpaw-setups-24.11.0/O.PBE.gz
    compensation charges: {type: gauss,
                           rc: 0.21,
                           lmax: 2}
    cutoffs: {filter: 1.17,
              core: 0.83}
    projectors:
      #              energy  rcut
      - 2s(2.00)   -23.961   0.688
      - 2p(4.00)    -9.029   0.598
      -  s           3.251   0.688
      -  p          18.182   0.598
      -  d           0.000   0.619
  
    # Using partial waves for O as LCAO basis

  H:
    name: Hydrogen
    id: d65de229564ff8ea4db303e23b6d1ecf
    Z: 1.0
    valence: 1
    core: 0
    charge: 0.0
    file: /Users/hexu/.local/pp/gpaw/gpaw-setups-24.11.0/H.PBE.gz
    compensation charges: {type: gauss,
                           rc: 0.15,
                           lmax: 2}
    cutoffs: {filter: 0.85,
              core: 0.53}
    projectors:
      #              energy  rcut
      - 1s(1.00)    -6.494   0.476
      -  s          20.717   0.476
      -  p           0.000   0.476
  
    # Using partial waves for H as LCAO basis

Reference energy: -2065.832626  # eV

Spin-paired calculation

Convergence criteria:
 Maximum [total energy] change in last 3 cyles: 0.0005 eV / valence electron
 Maximum integral of absolute [dens]ity change: 0.0001 electrons / valence electron
 Maximum integral of absolute [eigenst]ate change: 4e-08 eV^2 / valence electron
 Maximum number of scf [iter]ations: 333
 (Square brackets indicate name in SCF output, whereas a 'c' in
 the SCF output indicates the quantity has converged.)

Symmetries present (total): 4

  ( 1  0  0)  ( 1  0  0)  (-1  0  0)  (-1  0  0)
  ( 0  1  0)  ( 0 -1  0)  ( 0  1  0)  ( 0 -1  0)
  ( 0  0  1)  ( 0  0  1)  ( 0  0  1)  ( 0  0  1)

1 k-point (Gamma)
1 k-point in the irreducible part of the Brillouin zone
       k-points in crystal coordinates                weights
   0:     0.00000000    0.00000000    0.00000000          1/1

Wave functions: LCAO
  Diagonalizer: Serial LAPACK
  Atomic Correction: dense with blas
  Data-type: float
 

Occupation numbers: # Zero width 

Eigensolver
   LCAO using direct dense diagonalizer 

Densities:
  Coarse grid: 28*28*28 grid
  Fine grid: 56*56*56 grid
  Total Charge: 0.000000 

Density mixing:
  Method: separate
  Backend: pulay
  Linear mixing parameter: 0.25
  old densities: 3
  Damping of long wavelength oscillations: 1  # (no daming) 

Hamiltonian:
  XC and Coulomb potentials evaluated on a 56*56*56 grid
  Using the PBE Exchange-Correlation functional
  Interpolation: tri-quintic (5. degree polynomial)
  Poisson solver: FastPoissonSolver using
    Stencil: 6*3+1=19 point O(h^6) finite-difference Laplacian
    FFT axes: []
    FST axes: [0, 1, 2]
 

XC parameters: PBE with 2 nearest neighbor stencil

Memory estimate:
  Process memory now: 121.75 MiB
  Calculator: 10.27 MiB
    Density: 6.03 MiB
      Arrays: 4.11 MiB
      Localized functions: 1.02 MiB
      Mixer: 0.90 MiB
    Hamiltonian: 2.76 MiB
      Arrays: 2.69 MiB
      XC: 0.00 MiB
      Poisson: 0.00 MiB
      vbar: 0.07 MiB
    Wavefunctions: 1.48 MiB
      C [qnM]: 0.00 MiB
      S, T [2 x qmm]: 0.00 MiB
      P [aqMi]: 0.00 MiB
      BasisFunctions: 1.48 MiB
      Eigensolver: 0.00 MiB

Total number of cores used: 1

Number of atoms: 3
Number of atomic orbitals: 6
Number of bands in calculation: 6
Number of valence electrons: 8
Bands to converge: occupied

... initialized

Initializing position-dependent things.

Density initialized from atomic densities
     .--------------.  
    /|              |  
   / |              |  
  /  |              |  
 *   |              |  
 |   |    OH        |  
 |   |    H         |  
 |   .--------------.  
 |  /              /   
 | /              /    
 |/              /     
 *--------------*      

Positions:
   0 O      3.000000    3.000000    3.298154    ( 0.0000,  0.0000,  0.0000)
   1 H      3.000000    3.763239    2.701846    ( 0.0000,  0.0000,  0.0000)
   2 H      3.000000    2.236761    2.701846    ( 0.0000,  0.0000,  0.0000)

Unit cell:
           periodic     x           y           z      points  spacing
  1. axis:    no     6.000000    0.000000    0.000000    28     0.2143
  2. axis:    no     0.000000    6.000000    0.000000    28     0.2143
  3. axis:    no     0.000000    0.000000    6.000000    28     0.2143

  Lengths:   6.000000   6.000000   6.000000
  Angles:   90.000000  90.000000  90.000000

Effective grid spacing dv^(1/3) = 0.2143

     iter     time        total  log10-change:
                         energy   eigst   dens
iter:   1 09:21:00   -11.825002        c
iter:   2 09:21:01   -10.259538        c -0.77
iter:   3 09:21:01    -9.558400        c -0.99
iter:   4 09:21:01    -9.464717        c -1.41
iter:   5 09:21:01    -9.463272        c -2.26
iter:   6 09:21:01    -9.463207c       c -2.71
iter:   7 09:21:01    -9.463078c       c -2.83
iter:   8 09:21:01    -9.463075c       c -3.84
iter:   9 09:21:01    -9.463072c       c -4.00c

Converged after 9 iterations.

Dipole moment: (0.000000, -0.000000, -0.455228) |e|*Ang

Energy contributions relative to reference atoms: (reference = -2065.832626)

Kinetic:        +21.783367
Potential:      -20.141508
External:        +0.000000
XC:             -11.667044
Entropy (-ST):   +0.000000
Local:           +0.562113
SIC:             +0.000000
--------------------------
Free energy:     -9.463072
Extrapolated:    -9.463072

 Band  Eigenvalues  Occupancy
    0    -26.18784    2.00000
    1    -13.75390    2.00000
    2     -8.56321    2.00000
    3     -7.03960    2.00000
    4      1.61160    0.00000
    5      5.13476    0.00000

Fermi level: -2.71400

Gap: 8.651 eV
Transition (v -> c):
  (s=0, k=0, n=3, [0.00, 0.00, 0.00]) -> (s=0, k=0, n=4, [0.00, 0.00, 0.00])
No difference between direct/indirect transitions
Timing:                              incl.     excl.
-----------------------------------------------------------
Basic WFS set positions:             0.000     0.000   0.0% |
Basis functions set positions:       0.001     0.001   0.2% |
LCAO WFS Initialize:                 0.038     0.001   0.2% |
 Hamiltonian:                        0.037     0.000   0.0% |
  Atomic:                            0.014     0.000   0.0% |
   XC Correction:                    0.014     0.014   3.0% ||
  Calculate atomic Hamiltonians:     0.000     0.000   0.1% |
  Communicate:                       0.000     0.000   0.0% |
  Hartree integrate/restrict:        0.000     0.000   0.1% |
  Initialize Hamiltonian:            0.000     0.000   0.0% |
  Poisson:                           0.008     0.000   0.1% |
   Communicate from 1D:              0.001     0.001   0.1% |
   Communicate from 2D:              0.000     0.000   0.1% |
   Communicate to 1D:                0.001     0.001   0.2% |
   Communicate to 2D:                0.001     0.001   0.1% |
   FFT 1D:                           0.001     0.001   0.3% |
   FFT 2D:                           0.004     0.004   0.8% |
  XC 3D grid:                        0.014     0.014   3.1% ||
  vbar:                              0.000     0.000   0.0% |
P tci:                               0.002     0.002   0.5% |
SCF-cycle:                           0.295     0.001   0.2% |
 Density:                            0.013     0.000   0.0% |
  Atomic density matrices:           0.001     0.001   0.3% |
  Mix:                               0.005     0.005   1.1% |
  Multipole moments:                 0.000     0.000   0.0% |
  Normalize:                         0.000     0.000   0.0% |
  Pseudo density:                    0.007     0.000   0.0% |
   Calculate density matrix:         0.000     0.000   0.0% |
   Construct density:                0.004     0.004   0.9% |
   Symmetrize density:               0.003     0.003   0.6% |
 Hamiltonian:                        0.273     0.000   0.0% |
  Atomic:                            0.113     0.001   0.2% |
   XC Correction:                    0.112     0.112  24.6% |---------|
  Calculate atomic Hamiltonians:     0.001     0.001   0.3% |
  Communicate:                       0.000     0.000   0.0% |
  Hartree integrate/restrict:        0.003     0.003   0.7% |
  Poisson:                           0.048     0.001   0.3% |
   Communicate from 1D:              0.004     0.004   0.9% |
   Communicate from 2D:              0.004     0.004   0.8% |
   Communicate to 1D:                0.005     0.005   1.0% |
   Communicate to 2D:                0.004     0.004   0.9% |
   FFT 1D:                           0.010     0.010   2.2% ||
   FFT 2D:                           0.020     0.020   4.3% |-|
  XC 3D grid:                        0.107     0.107  23.5% |--------|
  vbar:                              0.000     0.000   0.1% |
 LCAO eigensolver:                   0.008     0.000   0.0% |
  Calculate projections:             0.000     0.000   0.0% |
  DenseAtomicCorrection:             0.000     0.000   0.0% |
  Distribute overlap matrix:         0.000     0.000   0.0% |
  Orbital Layouts:                   0.001     0.001   0.2% |
  Potential matrix:                  0.006     0.006   1.4% ||
ST tci:                              0.000     0.000   0.0% |
Set symmetry:                        0.001     0.001   0.2% |
TCI: Evaluate splines:               0.006     0.006   1.4% ||
mktci:                               0.001     0.001   0.3% |
Other:                               0.113     0.113  24.6% |---------|
-----------------------------------------------------------
Total:                                         0.458 100.0%

Memory usage: 138.02 MiB
Date: Tue Jul 22 09:21:01 2025
